<?xml version="1.0" encoding="UTF-8"?>

<!-- generated on Tuesday 09 June 2020 10:57:26 AM IST by Eclipse SUMO GUI Version 1.6.0
<configuration xmlns:xsi="http://www.w3.org/2001/XMLSchema-instance" xsi:noNamespaceSchemaLocation="http://sumo.dlr.de/xsd/sumoConfiguration.xsd">

    <input>
        <net-file value="../scripts/txmap.net.xml"/>
        <route-files value="../scripts/txmap.rou.xml"/>
        <additional-files value="../scripts/txmap.det.xml"/>
    </input>

    <output>
        <tripinfo-output value="../scripts/txmap-tripinfo.xml"/>
    </output>

    <time>
        <begin value="0"/>
    </time>

    <report>
        <verbose value="true"/>
        <no-warnings value="true"/>
        <no-step-log value="true"/>
    </report>

    <traci_server>
        <remote-port value="54429"/>
    </traci_server>

    <gui_only>
        <gui-settings-file value="../scripts/guisettings.xml"/>
        <quit-on-end value="true"/>
        <start value="true"/>
    </gui_only>

</configuration>
-->

<tripinfos xmlns:xsi="http://www.w3.org/2001/XMLSchema-instance" xsi:noNamespaceSchemaLocation="http://sumo.dlr.de/xsd/tripinfo_file.xsd">
    <tripinfo id="37" depart="25.00" departLane="-gneE18_0" departPos="2.30" departSpeed="0.00" departDelay="0.00" arrival="39.00" arrivalLane="-gneE18_0" arrivalPos="247.56" arrivalSpeed="24.34" duration="14.00" routeLength="245.26" waitingTime="0.00" waitingCount="0" stopTime="0.00" timeLoss="3.68" rerouteNo="0" devices="tripinfo_37" vType="typeLight" speedFactor="1.15" vaporized=""/>
    <tripinfo id="19" depart="9.00" departLane="-gneE24_0" departPos="4.40" departSpeed="0.00" departDelay="0.00" arrival="47.00" arrivalLane="-gneE24_0" arrivalPos="876.44" arrivalSpeed="26.92" duration="38.00" routeLength="872.04" waitingTime="0.00" waitingCount="0" stopTime="0.00" timeLoss="6.55" rerouteNo="0" devices="tripinfo_19" vType="typeNormal" speedFactor="0.99" vaporized=""/>
    <tripinfo id="38" depart="25.00" departLane="370567030#0_0" departPos="2.30" departSpeed="0.00" departDelay="0.00" arrival="82.00" arrivalLane="gneE61_0" arrivalPos="33.48" arrivalSpeed="20.05" duration="57.00" routeLength="468.11" waitingTime="26.00" waitingCount="1" stopTime="0.00" timeLoss="35.43" rerouteNo="0" devices="tripinfo_38" vType="typeLight" speedFactor="1.01" vaporized=""/>
    <tripinfo id="74" depart="49.00" departLane="-gneE69_0" departPos="2.30" departSpeed="0.00" departDelay="0.00" arrival="83.00" arrivalLane="-gneE64_1" arrivalPos="42.38" arrivalSpeed="18.33" duration="34.00" routeLength="537.15" waitingTime="0.00" waitingCount="0" stopTime="0.00" timeLoss="7.32" rerouteNo="0" devices="tripinfo_74" vType="typeLight" speedFactor="0.91" vaporized=""/>
    <tripinfo id="9" depart="3.00" departLane="15198692#3_0" departPos="4.40" departSpeed="0.00" departDelay="0.00" arrival="84.00" arrivalLane="gneE60_0" arrivalPos="62.57" arrivalSpeed="19.17" duration="81.00" routeLength="1483.56" waitingTime="0.00" waitingCount="0" stopTime="0.00" timeLoss="16.17" rerouteNo="0" devices="tripinfo_9" vType="typeNormal" speedFactor="1.05" vaporized=""/>
    <tripinfo id="87" depart="62.00" departLane="-gneE85_0" departPos="7.20" departSpeed="0.00" departDelay="0.00" arrival="96.00" arrivalLane="-gneE85_0" arrivalPos="379.37" arrivalSpeed="13.36" duration="34.00" routeLength="372.17" waitingTime="0.00" waitingCount="0" stopTime="0.00" timeLoss="7.17" rerouteNo="0" devices="tripinfo_87" vType="typeHeavy1" speedFactor="1.01" vaporized=""/>
    <tripinfo id="181" depart="134.00" departLane="gneE60_0" departPos="2.30" departSpeed="0.00" departDelay="0.00" arrival="140.00" arrivalLane="gneE60_0" arrivalPos="62.57" arrivalSpeed="19.67" duration="6.00" routeLength="60.27" waitingTime="0.00" waitingCount="0" stopTime="0.00" timeLoss="2.29" rerouteNo="0" devices="tripinfo_181" vType="typeLight" speedFactor="0.91" vaporized=""/>
    <tripinfo id="59" depart="35.00" departLane="gneE60_0" departPos="12.10" departSpeed="0.00" departDelay="0.00" arrival="142.00" arrivalLane="-gneE83_0" arrivalPos="151.99" arrivalSpeed="17.36" duration="107.00" routeLength="1725.94" waitingTime="0.00" waitingCount="0" stopTime="0.00" timeLoss="17.58" rerouteNo="0" devices="tripinfo_59" vType="typeHeavy2" speedFactor="1.02" vaporized=""/>
    <tripinfo id="73" depart="48.00" departLane="-15255985#0_0" departPos="4.40" departSpeed="0.00" departDelay="0.00" arrival="145.00" arrivalLane="-15254743#12_0" arrivalPos="998.18" arrivalSpeed="18.24" duration="97.00" routeLength="1403.89" waitingTime="0.00" waitingCount="0" stopTime="0.00" timeLoss="11.05" rerouteNo="0" devices="tripinfo_73" vType="typeNormal" speedFactor="0.88" vaporized=""/>
    <tripinfo id="171" depart="129.00" departLane="-gneE80_0" departPos="2.30" departSpeed="0.00" departDelay="0.00" arrival="148.00" arrivalLane="-gneE78_0" arrivalPos="81.86" arrivalSpeed="19.03" duration="19.00" routeLength="252.09" waitingTime="0.00" waitingCount="0" stopTime="0.00" timeLoss="6.04" rerouteNo="0" devices="tripinfo_171" vType="typeLight" speedFactor="0.97" vaporized=""/>
    <tripinfo id="21" depart="12.00" departLane="-gneE31_0" departPos="4.40" departSpeed="0.00" departDelay="0.00" arrival="150.00" arrivalLane="gneE89_0" arrivalPos="275.77" arrivalSpeed="11.61" duration="138.00" routeLength="2409.68" waitingTime="0.00" waitingCount="0" stopTime="0.00" timeLoss="20.61" rerouteNo="0" devices="tripinfo_21" vType="typeNormal" speedFactor="0.88" vaporized=""/>
    <tripinfo id="156" depart="119.00" departLane="-gneE71_0" departPos="2.30" departSpeed="0.00" departDelay="0.00" arrival="167.00" arrivalLane="-gneE69_1" arrivalPos="252.85" arrivalSpeed="20.55" duration="48.00" routeLength="871.77" waitingTime="0.00" waitingCount="0" stopTime="0.00" timeLoss="8.60" rerouteNo="0" devices="tripinfo_156" vType="typeLight" speedFactor="1.01" vaporized=""/>
    <tripinfo id="56" depart="33.00" departLane="gneE69_0" departPos="4.40" departSpeed="0.00" departDelay="0.00" arrival="170.00" arrivalLane="15257633#0_0" arrivalPos="618.47" arrivalSpeed="11.80" duration="137.00" routeLength="1900.37" waitingTime="0.00" waitingCount="0" stopTime="0.00" timeLoss="14.86" rerouteNo="0" devices="tripinfo_56" vType="typeNormal" speedFactor="0.85" vaporized=""/>
    <tripinfo id="58" depart="34.00" departLane="-gneE41_0" departPos="2.30" departSpeed="0.00" departDelay="0.00" arrival="174.00" arrivalLane="-gneE46_0" arrivalPos="750.66" arrivalSpeed="22.87" duration="140.00" routeLength="2234.95" waitingTime="0.00" waitingCount="0" stopTime="0.00" timeLoss="17.46" rerouteNo="0" devices="tripinfo_58" vType="typeLight" speedFactor="1.17" vaporized=""/>
    <tripinfo id="1" depart="0.00" departLane="-gneE22_0" departPos="4.40" departSpeed="0.00" departDelay="0.00" arrival="183.00" arrivalLane="gneE20_2" arrivalPos="189.88" arrivalSpeed="27.33" duration="183.00" routeLength="3637.88" waitingTime="0.00" waitingCount="0" stopTime="0.00" timeLoss="41.34" rerouteNo="0" devices="tripinfo_1" vType="typeNormal" speedFactor="1.06" vaporized=""/>
    <tripinfo id="136" depart="102.00" departLane="117979582#2_0" departPos="4.40" departSpeed="0.00" departDelay="0.00" arrival="189.00" arrivalLane="gneE18_2" arrivalPos="247.56" arrivalSpeed="27.46" duration="87.00" routeLength="1711.61" waitingTime="0.00" waitingCount="0" stopTime="0.00" timeLoss="18.98" rerouteNo="0" devices="tripinfo_136" vType="typeNormal" speedFactor="1.00" vaporized=""/>
    <tripinfo id="203" depart="152.00" departLane="-gneE66_0" departPos="2.30" departSpeed="0.00" departDelay="1.00" arrival="191.00" arrivalLane="-370567030#2_1" arrivalPos="95.63" arrivalSpeed="22.85" duration="39.00" routeLength="694.24" waitingTime="0.00" waitingCount="0" stopTime="0.00" timeLoss="9.05" rerouteNo="0" devices="tripinfo_203" vType="typeLight" speedFactor="1.08" vaporized=""/>
    <tripinfo id="190" depart="139.00" departLane="-gneE18_0" departPos="2.30" departSpeed="0.00" departDelay="0.00" arrival="198.00" arrivalLane="117979582#2_0" arrivalPos="666.12" arrivalSpeed="8.27" duration="59.00" routeLength="1030.47" waitingTime="0.00" waitingCount="0" stopTime="0.00" timeLoss="13.55" rerouteNo="0" devices="tripinfo_190" vType="typeLight" speedFactor="1.00" vaporized=""/>
    <tripinfo id="223" depart="167.00" departLane="-gneE46_0" departPos="2.30" departSpeed="0.00" departDelay="0.00" arrival="205.00" arrivalLane="-gneE46_0" arrivalPos="750.66" arrivalSpeed="19.35" duration="38.00" routeLength="748.36" waitingTime="0.00" waitingCount="0" stopTime="0.00" timeLoss="4.86" rerouteNo="0" devices="tripinfo_223" vType="typeLight" speedFactor="1.03" vaporized=""/>
    <tripinfo id="76" depart="53.00" departLane="-gneE47_0" departPos="2.30" departSpeed="0.00" departDelay="0.00" arrival="206.00" arrivalLane="-gneE42_0" arrivalPos="84.48" arrivalSpeed="11.02" duration="153.00" routeLength="2934.33" waitingTime="4.00" waitingCount="1" stopTime="0.00" timeLoss="26.27" rerouteNo="0" devices="tripinfo_76" vType="typeLight" speedFactor="1.04" vaporized=""/>
    <tripinfo id="145" depart="110.00" departLane="-gneE95_0" departPos="7.20" departSpeed="0.00" departDelay="0.00" arrival="212.00" arrivalLane="-gneE19_1" arrivalPos="221.70" arrivalSpeed="21.65" duration="102.00" routeLength="1426.48" waitingTime="10.00" waitingCount="1" stopTime="0.00" timeLoss="36.14" rerouteNo="0" devices="tripinfo_145" vType="typeHeavy1" speedFactor="1.15" vaporized=""/>
    <tripinfo id="118" depart="82.00" departLane="gneE21_0" departPos="7.20" departSpeed="0.00" departDelay="0.00" arrival="216.00" arrivalLane="gneE24_1" arrivalPos="876.44" arrivalSpeed="14.95" duration="134.00" routeLength="2202.97" waitingTime="1.00" waitingCount="1" stopTime="0.00" timeLoss="34.57" rerouteNo="0" devices="tripinfo_118" vType="typeHeavy1" speedFactor="1.07" vaporized=""/>
    <tripinfo id="83" depart="58.00" departLane="gneE87_0" departPos="4.40" departSpeed="0.00" departDelay="0.00" arrival="218.00" arrivalLane="gneE32_0" arrivalPos="724.63" arrivalSpeed="26.43" duration="160.00" routeLength="3368.10" waitingTime="0.00" waitingCount="0" stopTime="0.00" timeLoss="21.83" rerouteNo="0" devices="tripinfo_83" vType="typeNormal" speedFactor="0.98" vaporized=""/>
    <tripinfo id="99" depart="70.00" departLane="gneE61_0" departPos="4.40" departSpeed="0.00" departDelay="0.00" arrival="218.00" arrivalLane="gneE76_0" arrivalPos="433.97" arrivalSpeed="21.02" duration="148.00" routeLength="2925.45" waitingTime="0.00" waitingCount="0" stopTime="0.00" timeLoss="16.85" rerouteNo="0" devices="tripinfo_99" vType="typeNormal" speedFactor="1.01" vaporized=""/>
    <tripinfo id="43" depart="27.00" departLane="-gneE70_0" departPos="2.30" departSpeed="0.00" departDelay="0.00" arrival="224.00" arrivalLane="gneE62_1" arrivalPos="38.86" arrivalSpeed="15.65" duration="197.00" routeLength="2398.90" waitingTime="44.00" waitingCount="3" stopTime="0.00" timeLoss="85.25" rerouteNo="0" devices="tripinfo_43" vType="typeLight" speedFactor="0.97" vaporized=""/>
    <tripinfo id="113" depart="80.00" departLane="gneE72_0" departPos="2.30" departSpeed="0.00" departDelay="0.00" arrival="234.00" arrivalLane="gneE88_1" arrivalPos="101.09" arrivalSpeed="20.42" duration="154.00" routeLength="2203.04" waitingTime="0.00" waitingCount="0" stopTime="0.00" timeLoss="27.42" rerouteNo="0" devices="tripinfo_113" vType="typeLight" speedFactor="0.96" vaporized=""/>
    <tripinfo id="23" depart="13.00" departLane="gneE96_0" departPos="4.40" departSpeed="0.00" departDelay="0.00" arrival="245.00" arrivalLane="gneE50_0" arrivalPos="137.82" arrivalSpeed="12.43" duration="232.00" routeLength="4271.29" waitingTime="10.00" waitingCount="1" stopTime="0.00" timeLoss="42.13" rerouteNo="0" devices="tripinfo_23" vType="typeNormal" speedFactor="0.94" vaporized=""/>
    <tripinfo id="165" depart="125.00" departLane="-gneE22_0" departPos="4.40" departSpeed="0.00" departDelay="0.00" arrival="249.00" arrivalLane="-gneE16_0" arrivalPos="773.37" arrivalSpeed="11.79" duration="124.00" routeLength="2180.59" waitingTime="0.00" waitingCount="0" stopTime="0.00" timeLoss="13.24" rerouteNo="0" devices="tripinfo_165" vType="typeNormal" speedFactor="0.94" vaporized=""/>
    <tripinfo id="211" depart="156.00" departLane="-gneE62_0" departPos="2.30" departSpeed="0.00" departDelay="0.00" arrival="252.00" arrivalLane="gneE64_0" arrivalPos="42.38" arrivalSpeed="19.63" duration="96.00" routeLength="1589.17" waitingTime="0.00" waitingCount="0" stopTime="0.00" timeLoss="15.95" rerouteNo="0" devices="tripinfo_211" vType="typeLight" speedFactor="0.92" vaporized=""/>
    <tripinfo id="27" depart="16.00" departLane="gneE55_0" departPos="2.30" departSpeed="0.00" departDelay="0.00" arrival="260.00" arrivalLane="-15255985#0_0" arrivalPos="86.62" arrivalSpeed="13.22" duration="244.00" routeLength="3206.90" waitingTime="43.00" waitingCount="1" stopTime="0.00" timeLoss="74.68" rerouteNo="0" devices="tripinfo_27" vType="typeLight" speedFactor="1.01" vaporized=""/>
    <tripinfo id="26" depart="15.00" departLane="-15198692#3_0" departPos="7.20" departSpeed="0.00" departDelay="0.00" arrival="272.00" arrivalLane="gneE83_1" arrivalPos="151.99" arrivalSpeed="10.05" duration="257.00" routeLength="4027.47" waitingTime="0.00" waitingCount="0" stopTime="0.00" timeLoss="55.00" rerouteNo="0" devices="tripinfo_26" vType="typeHeavy1" speedFactor="1.02" vaporized=""/>
    <tripinfo id="201" depart="149.00" departLane="-gneE48_0" departPos="2.30" departSpeed="0.00" departDelay="0.00" arrival="280.00" arrivalLane="gneE47_1" arrivalPos="375.74" arrivalSpeed="20.85" duration="131.00" routeLength="2046.28" waitingTime="0.00" waitingCount="0" stopTime="0.00" timeLoss="20.62" rerouteNo="0" devices="tripinfo_201" vType="typeLight" speedFactor="1.09" vaporized=""/>
    <tripinfo id="207" depart="152.00" departLane="gneE23_0" departPos="2.30" departSpeed="0.00" departDelay="0.00" arrival="280.00" arrivalLane="gneE25_1" arrivalPos="402.21" arrivalSpeed="24.14" duration="128.00" routeLength="1878.88" waitingTime="36.00" waitingCount="1" stopTime="0.00" timeLoss="52.10" rerouteNo="0" devices="tripinfo_207" vType="typeLight" speedFactor="1.03" vaporized=""/>
    <tripinfo id="70" depart="47.00" departLane="-262977941#3_0" departPos="2.30" departSpeed="0.00" departDelay="0.00" arrival="281.00" arrivalLane="gneE25_1" arrivalPos="402.21" arrivalSpeed="22.15" duration="234.00" routeLength="3522.22" waitingTime="30.00" waitingCount="1" stopTime="0.00" timeLoss="70.37" rerouteNo="0" devices="tripinfo_70" vType="typeLight" speedFactor="1.02" vaporized=""/>
    <tripinfo id="249" depart="185.00" departLane="-gneE21_0" departPos="2.30" departSpeed="0.00" departDelay="0.00" arrival="287.00" arrivalLane="gneE1_0" arrivalPos="7.18" arrivalSpeed="11.56" duration="102.00" routeLength="1793.45" waitingTime="3.00" waitingCount="1" stopTime="0.00" timeLoss="23.30" rerouteNo="0" devices="tripinfo_249" vType="typeLight" speedFactor="0.91" vaporized=""/>
    <tripinfo id="49" depart="30.00" departLane="gneE20_0" departPos="4.40" departSpeed="0.00" departDelay="0.00" arrival="293.00" arrivalLane="gneE54_1" arrivalPos="112.00" arrivalSpeed="15.10" duration="263.00" routeLength="2531.51" waitingTime="116.00" waitingCount="2" stopTime="0.00" timeLoss="170.02" rerouteNo="0" devices="tripinfo_49" vType="typeNormal" speedFactor="1.09" vaporized=""/>
    <tripinfo id="51" depart="31.00" departLane="gneE52_0" departPos="4.40" departSpeed="0.00" departDelay="0.00" arrival="293.00" arrivalLane="gneE64_0" arrivalPos="42.38" arrivalSpeed="18.92" duration="262.00" routeLength="2212.34" waitingTime="129.00" waitingCount="2" stopTime="0.00" timeLoss="172.11" rerouteNo="0" devices="tripinfo_51" vType="typeNormal" speedFactor="1.04" vaporized=""/>
    <tripinfo id="32" depart="20.00" departLane="-gneE44_0" departPos="4.40" departSpeed="0.00" departDelay="0.00" arrival="295.00" arrivalLane="gneE65_1" arrivalPos="36.24" arrivalSpeed="19.21" duration="275.00" routeLength="2178.63" waitingTime="151.00" waitingCount="2" stopTime="0.00" timeLoss="183.41" rerouteNo="0" devices="tripinfo_32" vType="typeNormal" speedFactor="0.92" vaporized=""/>
    <tripinfo id="311" depart="232.00" departLane="gneE87_0" departPos="2.30" departSpeed="0.00" departDelay="0.00" arrival="297.00" arrivalLane="-gneE66_0" arrivalPos="61.57" arrivalSpeed="21.40" duration="65.00" routeLength="1073.19" waitingTime="0.00" waitingCount="0" stopTime="0.00" timeLoss="14.82" rerouteNo="0" devices="tripinfo_311" vType="typeLight" speedFactor="0.97" vaporized=""/>
    <tripinfo id="13" depart="6.00" departLane="gneE20_0" departPos="4.40" departSpeed="0.00" departDelay="0.00" arrival="298.00" arrivalLane="gneE60_1" arrivalPos="62.57" arrivalSpeed="18.62" duration="292.00" routeLength="2661.13" waitingTime="141.00" waitingCount="2" stopTime="0.00" timeLoss="189.99" rerouteNo="0" devices="tripinfo_13" vType="typeNormal" speedFactor="0.86" vaporized=""/>
    <tripinfo id="90" depart="63.00" departLane="-gneE68_0" departPos="2.30" departSpeed="0.00" departDelay="0.00" arrival="305.00" arrivalLane="-gneE83_0" arrivalPos="151.99" arrivalSpeed="19.19" duration="242.00" routeLength="3433.30" waitingTime="25.00" waitingCount="4" stopTime="0.00" timeLoss="83.16" rerouteNo="0" devices="tripinfo_90" vType="typeLight" speedFactor="1.00" vaporized=""/>
    <tripinfo id="147" depart="111.00" departLane="-243478541#2_0" departPos="7.20" departSpeed="0.00" departDelay="0.00" arrival="307.00" arrivalLane="gneE89_0" arrivalPos="275.77" arrivalSpeed="11.35" duration="196.00" routeLength="2485.18" waitingTime="0.00" waitingCount="0" stopTime="0.00" timeLoss="29.07" rerouteNo="0" devices="tripinfo_147" vType="typeHeavy1" speedFactor="0.82" vaporized=""/>
    <tripinfo id="34" depart="23.00" departLane="gneE1_0" departPos="7.18" departSpeed="0.00" departDelay="0.00" arrival="308.00" arrivalLane="gneE95_0" arrivalPos="163.21" arrivalSpeed="19.27" duration="285.00" routeLength="3314.00" waitingTime="0.00" waitingCount="0" stopTime="0.00" timeLoss="23.70" rerouteNo="0" devices="tripinfo_34" vType="typeHeavy2" speedFactor="1.13" vaporized=""/>
    <tripinfo id="71" depart="47.00" departLane="-gneE65_0" departPos="2.30" departSpeed="0.00" departDelay="0.00" arrival="312.00" arrivalLane="-gneE83_0" arrivalPos="151.99" arrivalSpeed="19.65" duration="265.00" routeLength="3226.94" waitingTime="61.00" waitingCount="3" stopTime="0.00" timeLoss="114.53" rerouteNo="0" devices="tripinfo_71" vType="typeLight" speedFactor="0.99" vaporized=""/>
    <tripinfo id="189" depart="138.00" departLane="gneE21_0" departPos="2.30" departSpeed="0.00" departDelay="0.00" arrival="312.00" arrivalLane="gneE55_1" arrivalPos="61.52" arrivalSpeed="17.54" duration="174.00" routeLength="2408.01" waitingTime="36.00" waitingCount="1" stopTime="0.00" timeLoss="73.39" rerouteNo="0" devices="tripinfo_189" vType="typeLight" speedFactor="0.91" vaporized=""/>
    <tripinfo id="11" depart="5.00" departLane="318672327_0" departPos="4.40" departSpeed="0.00" departDelay="0.00" arrival="317.00" arrivalLane="gneE60_1" arrivalPos="62.57" arrivalSpeed="20.35" duration="312.00" routeLength="4344.54" waitingTime="9.00" waitingCount="1" stopTime="0.00" timeLoss="80.43" rerouteNo="0" devices="tripinfo_11" vType="typeNormal" speedFactor="0.94" vaporized=""/>
    <tripinfo id="44" depart="28.00" departLane="gneE18_0" departPos="2.30" departSpeed="0.00" departDelay="0.00" arrival="319.00" arrivalLane="-15255985#0_0" arrivalPos="86.62" arrivalSpeed="8.63" duration="291.00" routeLength="4500.55" waitingTime="35.00" waitingCount="1" stopTime="0.00" timeLoss="79.88" rerouteNo="0" devices="tripinfo_44" vType="typeLight" speedFactor="1.18" vaporized=""/>
    <tripinfo id="33" depart="21.00" departLane="gneE43_0" departPos="2.30" departSpeed="0.00" departDelay="0.00" arrival="323.00" arrivalLane="gneE63_1" arrivalPos="34.13" arrivalSpeed="18.18" duration="302.00" routeLength="4822.67" waitingTime="36.00" waitingCount="1" stopTime="0.00" timeLoss="94.56" rerouteNo="0" devices="tripinfo_33" vType="typeLight" speedFactor="0.95" vaporized=""/>
    <tripinfo id="180" depart="133.00" departLane="15257902_0" departPos="4.40" departSpeed="0.00" departDelay="0.00" arrival="328.00" arrivalLane="-318425078#11_0" arrivalPos="465.36" arrivalSpeed="27.46" duration="195.00" routeLength="3523.09" waitingTime="8.00" waitingCount="1" stopTime="0.00" timeLoss="61.71" rerouteNo="0" devices="tripinfo_180" vType="typeNormal" speedFactor="1.08" vaporized=""/>
    <tripinfo id="109" depart="79.00" departLane="-gneE31_0" departPos="2.30" departSpeed="0.00" departDelay="0.00" arrival="337.00" arrivalLane="gneE54_0" arrivalPos="112.00" arrivalSpeed="16.68" duration="258.00" routeLength="1231.39" waitingTime="192.00" waitingCount="1" stopTime="0.00" timeLoss="206.39" rerouteNo="0" devices="tripinfo_109" vType="typeLight" speedFactor="0.91" vaporized=""/>
    <tripinfo id="234" depart="175.00" departLane="370567030#0_0" departPos="2.30" departSpeed="0.00" departDelay="0.00" arrival="337.00" arrivalLane="gneE9_0" arrivalPos="108.32" arrivalSpeed="12.39" duration="162.00" routeLength="2181.19" waitingTime="6.00" waitingCount="1" stopTime="0.00" timeLoss="38.56" rerouteNo="0" devices="tripinfo_234" vType="typeLight" speedFactor="1.02" vaporized=""/>
    <tripinfo id="28" depart="16.00" departLane="-gneE22_0" departPos="4.40" departSpeed="0.00" departDelay="0.00" arrival="339.00" arrivalLane="-318425078#6_0" arrivalPos="173.67" arrivalSpeed="25.97" duration="323.00" routeLength="6490.48" waitingTime="0.00" waitingCount="0" stopTime="0.00" timeLoss="70.22" rerouteNo="0" devices="tripinfo_28" vType="typeNormal" speedFactor="0.98" vaporized=""/>
    <tripinfo id="55" depart="33.00" departLane="370567030#0_0" departPos="2.30" departSpeed="0.00" departDelay="0.00" arrival="340.00" arrivalLane="-gneE66_0" arrivalPos="61.57" arrivalSpeed="18.29" duration="307.00" routeLength="4276.23" waitingTime="16.00" waitingCount="1" stopTime="0.00" timeLoss="62.97" rerouteNo="0" devices="tripinfo_55" vType="typeLight" speedFactor="0.88" vaporized=""/>
    <tripinfo id="46" depart="29.00" departLane="gneE0_0" departPos="2.30" departSpeed="0.00" departDelay="0.00" arrival="343.00" arrivalLane="15196728#12_0" arrivalPos="994.05" arrivalSpeed="11.67" duration="314.00" routeLength="4725.06" waitingTime="0.00" waitingCount="0" stopTime="0.00" timeLoss="46.04" rerouteNo="0" devices="tripinfo_46" vType="typeLight" speedFactor="0.90" vaporized=""/>
    <tripinfo id="411" depart="304.00" departLane="gneE54_0" departPos="7.20" departSpeed="0.00" departDelay="0.00" arrival="343.00" arrivalLane="gneE66_0" arrivalPos="61.57" arrivalSpeed="19.33" duration="39.00" routeLength="491.50" waitingTime="0.00" waitingCount="0" stopTime="0.00" timeLoss="15.17" rerouteNo="0" devices="tripinfo_411" vType="typeHeavy1" speedFactor="0.95" vaporized=""/>
    <tripinfo id="256" depart="189.00" departLane="gneE15_0" departPos="4.40" departSpeed="0.00" departDelay="0.00" arrival="344.00" arrivalLane="-15254898#0_0" arrivalPos="300.81" arrivalSpeed="12.67" duration="155.00" routeLength="1951.89" waitingTime="0.00" waitingCount="0" stopTime="0.00" timeLoss="18.96" rerouteNo="0" devices="tripinfo_256" vType="typeNormal" speedFactor="0.97" vaporized=""/>
    <tripinfo id="10" depart="4.00" departLane="-gneE21_0" departPos="2.30" departSpeed="0.00" departDelay="0.00" arrival="346.00" arrivalLane="15258387_0" arrivalPos="653.08" arrivalSpeed="12.30" duration="342.00" routeLength="5630.56" waitingTime="9.00" waitingCount="1" stopTime="0.00" timeLoss="70.60" rerouteNo="0" devices="tripinfo_10" vType="typeLight" speedFactor="0.89" vaporized=""/>
    <tripinfo id="157" depart="119.00" departLane="-gneE32_0" departPos="4.40" departSpeed="0.00" departDelay="0.00" arrival="346.00" arrivalLane="gneE54_0" arrivalPos="112.00" arrivalSpeed="23.58" duration="227.00" routeLength="1955.36" waitingTime="133.00" waitingCount="1" stopTime="0.00" timeLoss="154.97" rerouteNo="0" devices="tripinfo_157" vType="typeNormal" speedFactor="1.12" vaporized=""/>
    <tripinfo id="212" depart="158.00" departLane="-gneE97_0" departPos="4.40" departSpeed="0.00" departDelay="0.00" arrival="346.00" arrivalLane="gneE69_1" arrivalPos="252.85" arrivalSpeed="22.38" duration="188.00" routeLength="3168.13" waitingTime="16.00" waitingCount="1" stopTime="0.00" timeLoss="65.17" rerouteNo="0" devices="tripinfo_212" vType="typeNormal" speedFactor="1.08" vaporized=""/>
    <tripinfo id="114" depart="81.00" departLane="gneE46_0" departPos="4.40" departSpeed="0.00" departDelay="0.00" arrival="347.00" arrivalLane="gneE32_0" arrivalPos="724.63" arrivalSpeed="27.24" duration="266.00" routeLength="4991.56" waitingTime="0.00" waitingCount="0" stopTime="0.00" timeLoss="19.62" rerouteNo="0" devices="tripinfo_114" vType="typeNormal" speedFactor="0.97" vaporized=""/>
    <tripinfo id="110" depart="79.00" departLane="gneE43_0" departPos="4.40" departSpeed="0.00" departDelay="0.00" arrival="348.00" arrivalLane="-15256606#1_0" arrivalPos="759.11" arrivalSpeed="23.61" duration="269.00" routeLength="5636.76" waitingTime="0.00" waitingCount="0" stopTime="0.00" timeLoss="51.79" rerouteNo="0" devices="tripinfo_110" vType="typeNormal" speedFactor="1.12" vaporized=""/>
    <tripinfo id="343" depart="255.00" departLane="gneE55_0" departPos="7.20" departSpeed="0.00" departDelay="0.00" arrival="352.00" arrivalLane="-gneE87_0" arrivalPos="286.92" arrivalSpeed="21.72" duration="97.00" routeLength="1394.70" waitingTime="8.00" waitingCount="1" stopTime="0.00" timeLoss="33.16" rerouteNo="0" devices="tripinfo_343" vType="typeHeavy1" speedFactor="1.16" vaporized=""/>
    <tripinfo id="434" depart="325.00" departLane="-gneE82_0" departPos="4.40" departSpeed="0.00" departDelay="0.00" arrival="357.00" arrivalLane="-gneE81_0" arrivalPos="310.93" arrivalSpeed="23.00" duration="32.00" routeLength="608.28" waitingTime="0.00" waitingCount="0" stopTime="0.00" timeLoss="5.80" rerouteNo="0" devices="tripinfo_434" vType="typeNormal" speedFactor="1.08" vaporized=""/>
    <tripinfo id="149" depart="113.00" departLane="-15256203#2_0" departPos="2.30" departSpeed="0.00" departDelay="0.00" arrival="358.00" arrivalLane="-gneE64_0" arrivalPos="42.38" arrivalSpeed="20.08" duration="245.00" routeLength="4076.17" waitingTime="6.00" waitingCount="1" stopTime="0.00" timeLoss="41.25" rerouteNo="0" devices="tripinfo_149" vType="typeLight" speedFactor="1.01" vaporized=""/>
    <tripinfo id="258" depart="189.00" departLane="-gneE25_0" departPos="4.40" departSpeed="0.00" departDelay="0.00" arrival="360.00" arrivalLane="gneE62_0" arrivalPos="38.86" arrivalSpeed="15.32" duration="171.00" routeLength="723.89" waitingTime="119.00" waitingCount="1" stopTime="0.00" timeLoss="142.33" rerouteNo="0" devices="tripinfo_258" vType="typeNormal" speedFactor="1.11" vaporized=""/>
    <tripinfo id="89" depart="62.00" departLane="gneE83_0" departPos="4.40" departSpeed="0.00" departDelay="0.00" arrival="363.00" arrivalLane="-340424302#1_0" arrivalPos="337.45" arrivalSpeed="2.66" duration="301.00" routeLength="2444.86" waitingTime="0.00" waitingCount="0" stopTime="0.00" timeLoss="63.16" rerouteNo="0" devices="tripinfo_89" vType="typeNormal" speedFactor="1.03" vaporized=""/>
    <tripinfo id="72" depart="48.00" departLane="-gneE19_0" departPos="2.30" departSpeed="0.00" departDelay="0.00" arrival="365.00" arrivalLane="gneE69_0" arrivalPos="252.85" arrivalSpeed="20.04" duration="317.00" routeLength="5847.83" waitingTime="0.00" waitingCount="0" stopTime="0.00" timeLoss="61.76" rerouteNo="0" devices="tripinfo_72" vType="typeLight" speedFactor="0.94" vaporized=""/>
    <tripinfo id="67" depart="45.00" departLane="-gneE25_0" departPos="2.30" departSpeed="0.00" departDelay="3.00" arrival="371.00" arrivalLane="gneE69_1" arrivalPos="252.85" arrivalSpeed="15.28" duration="326.00" routeLength="1306.88" waitingTime="254.00" waitingCount="1" stopTime="0.00" timeLoss="270.82" rerouteNo="0" devices="tripinfo_67" vType="typeLight" speedFactor="1.08" vaporized=""/>
    <tripinfo id="342" depart="254.00" departLane="gneE4_0" departPos="2.30" departSpeed="0.00" departDelay="0.00" arrival="373.00" arrivalLane="-gneE62_0" arrivalPos="38.86" arrivalSpeed="20.53" duration="119.00" routeLength="1607.58" waitingTime="0.00" waitingCount="0" stopTime="0.00" timeLoss="20.04" rerouteNo="0" devices="tripinfo_342" vType="typeLight" speedFactor="0.98" vaporized=""/>
    <tripinfo id="323" depart="242.00" departLane="-15257098#11_0" departPos="2.30" departSpeed="0.00" departDelay="0.00" arrival="378.00" arrivalLane="-705155959#1_0" arrivalPos="135.76" arrivalSpeed="3.33" duration="136.00" routeLength="903.30" waitingTime="0.00" waitingCount="0" stopTime="0.00" timeLoss="29.68" rerouteNo="0" devices="tripinfo_323" vType="typeLight" speedFactor="0.76" vaporized=""/>
    <tripinfo id="208" depart="155.00" departLane="gneE18_0" departPos="4.40" departSpeed="0.00" departDelay="0.00" arrival="381.00" arrivalLane="-15196728#11_0" arrivalPos="472.14" arrivalSpeed="7.62" duration="226.00" routeLength="3387.17" waitingTime="0.00" waitingCount="0" stopTime="0.00" timeLoss="66.30" rerouteNo="0" devices="tripinfo_208" vType="typeNormal" speedFactor="1.08" vaporized=""/>
    <tripinfo id="88" depart="62.00" departLane="gneE22_0" departPos="4.40" departSpeed="0.00" departDelay="0.00" arrival="386.00" arrivalLane="-gneE83_0" arrivalPos="151.99" arrivalSpeed="23.42" duration="324.00" routeLength="3805.22" waitingTime="107.00" waitingCount="2" stopTime="0.00" timeLoss="174.55" rerouteNo="0" devices="tripinfo_88" vType="typeNormal" speedFactor="1.09" vaporized=""/>